<?xml version="1.0" encoding="UTF-8"?>

<!-- generated on 2021-09-24 07:09:29 by Eclipse SUMO sumo Version 1.10.0
<configuration xmlns:xsi="http://www.w3.org/2001/XMLSchema-instance" xsi:noNamespaceSchemaLocation="http://sumo.dlr.de/xsd/sumoConfiguration.xsd">

    <input>
        <net-file value="/home/thomasrw/Model/HPC/home/mape.net.xml"/>
        <additional-files value="/home/thomasrw/Model/HPC/home/myOUT-route.xml,/home/thomasrw/Desktop/CAV004_153,/home/thomasrw/Model/HPC/home/detPOI_OUT.xml,/home/thomasrw/Model/HPC/home/valCount.xml"/>
        <weight-attribute value="traveltime"/>
        <load-state.offset value="0"/>
    </input>

    <output>
        <write-license value="false"/>
        <output-prefix value="log_"/>
        <precision value="2"/>
        <precision.geo value="6"/>
        <human-readable-time value="false"/>
        <netstate-dump.empty-edges value="false"/>
        <netstate-dump.precision value="2"/>
        <emission-output.precision value="2"/>
        <battery-output.precision value="2"/>
        <fcd-output.geo value="false"/>
        <fcd-output.signals value="false"/>
        <tripinfo-output value="/home/thomasrw/PycharmProjects/pltn_compare/tripinfo"/>
        <tripinfo-output.write-unfinished value="true"/>
        <vehroute-output.exit-times value="false"/>
        <vehroute-output.last-route value="false"/>
        <vehroute-output.sorted value="true"/>
        <vehroute-output.dua value="false"/>
        <vehroute-output.cost value="false"/>
        <vehroute-output.intended-depart value="false"/>
        <vehroute-output.route-length value="false"/>
        <vehroute-output.write-unfinished value="false"/>
        <vehroute-output.skip-ptlines value="false"/>
        <lanechange-output.started value="false"/>
        <lanechange-output.ended value="false"/>
        <save-state.period value="-1"/>
        <save-state.prefix value="/home/thomasrw/Model/HPC/home/state"/>
        <save-state.suffix value=".sbx"/>
    </output>

    <time>
        <begin value="0"/>
        <end value="7200"/>
        <step-length value="0.1"/>
    </time>

    <processing>
        <step-method.ballistic value="false"/>
        <threads value="1"/>
        <lateral-resolution value="-1"/>
        <route-steps value="200"/>
        <no-internal-links value="false"/>
        <ignore-junction-blocker value="-1"/>
        <ignore-route-errors value="false"/>
        <ignore-accidents value="false"/>
        <collision.action value="teleport"/>
        <collision.stoptime value="0"/>
        <collision.check-junctions value="false"/>
        <collision.mingap-factor value="-1"/>
        <max-num-vehicles value="-1"/>
        <max-num-teleports value="-1"/>
        <scale value="1"/>
        <time-to-teleport value="300"/>
        <time-to-teleport.highways value="0"/>
        <waiting-time-memory value="100"/>
        <max-depart-delay value="-1"/>
        <sloppy-insert value="false"/>
        <eager-insert value="true"/>
        <random-depart-offset value="0"/>
        <lanechange.duration value="0"/>
        <lanechange.overtake-right value="false"/>
        <tls.all-off value="false"/>
        <tls.actuated.show-detectors value="false"/>
        <time-to-impatience value="300"/>
        <default.action-step-length value="0"/>
        <default.carfollowmodel value="Krauss"/>
        <default.speeddev value="-1"/>
        <default.emergencydecel value="default"/>
        <emergencydecel.warning-threshold value="1"/>
        <pedestrian.model value="striping"/>
        <pedestrian.striping.stripe-width value="0.64"/>
        <pedestrian.striping.dawdling value="0.2"/>
        <pedestrian.striping.jamtime value="300"/>
        <pedestrian.remote.address value="localhost:9000"/>
    </processing>

    <routing>
        <routing-algorithm value="dijkstra"/>
        <weights.random-factor value="1"/>
        <weights.minor-penalty value="1.5"/>
        <persontrip.walkfactor value="0.75"/>
        <persontrip.transfer.car-walk value="parkingAreas"/>
        <device.rerouting.probability value="-1"/>
        <device.rerouting.deterministic value="false"/>
        <device.rerouting.period value="0"/>
        <device.rerouting.pre-period value="60"/>
        <device.rerouting.adaptation-steps value="180"/>
        <device.rerouting.adaptation-interval value="1"/>
        <device.rerouting.with-taz value="false"/>
        <device.rerouting.init-with-loaded-weights value="false"/>
        <device.rerouting.threads value="0"/>
        <device.rerouting.synchronize value="false"/>
        <person-device.rerouting.probability value="-1"/>
        <person-device.rerouting.deterministic value="false"/>
        <person-device.rerouting.period value="0"/>
    </routing>

    <report>
        <verbose value="false"/>
        <print-options value="false"/>
        <help value=""/>
        <version value="false"/>
        <xml-validation value="auto"/>
        <xml-validation.net value="never"/>
        <xml-validation.routes value="auto"/>
        <no-warnings value="false"/>
        <duration-log.disable value="false"/>
        <duration-log.statistics value="false"/>
        <no-step-log value="false"/>
    </report>

    <emissions>
        <phemlight-path value="/home/thomasrw/Model/HPC/home/./PHEMlight/"/>
        <device.emissions.probability value="1"/>
        <device.emissions.deterministic value="false"/>
    </emissions>

    <communication>
        <device.btreceiver.probability value="-1"/>
        <device.btreceiver.deterministic value="false"/>
        <device.btreceiver.range value="300"/>
        <device.btreceiver.all-recognitions value="false"/>
        <device.btreceiver.offtime value="0.64"/>
        <device.btsender.probability value="-1"/>
        <device.btsender.deterministic value="false"/>
    </communication>

    <battery>
        <device.battery.probability value="-1"/>
        <device.battery.deterministic value="false"/>
    </battery>

    <example_device>
        <device.example.probability value="-1"/>
        <device.example.deterministic value="false"/>
        <device.example.parameter value="0"/>
    </example_device>

    <ssm_device>
        <device.ssm.probability value="-1"/>
        <device.ssm.deterministic value="false"/>
    </ssm_device>

    <toc_device>
        <device.toc.probability value="-1"/>
        <device.toc.deterministic value="false"/>
        <device.toc.responseTime value="5"/>
        <device.toc.recoveryRate value="0.1"/>
        <device.toc.lcAbstinence value="0"/>
        <device.toc.initialAwareness value="0.5"/>
        <device.toc.mrmDecel value="1.5"/>
        <device.toc.ogNewTimeHeadway value="-1"/>
        <device.toc.ogNewSpaceHeadway value="-1"/>
        <device.toc.ogMaxDecel value="-1"/>
        <device.toc.ogChangeRate value="-1"/>
        <device.toc.useColorScheme value="true"/>
    </toc_device>

    <driver_state_device>
        <device.driverstate.probability value="-1"/>
        <device.driverstate.deterministic value="false"/>
        <device.driverstate.initialAwareness value="1"/>
        <device.driverstate.errorTimeScaleCoefficient value="100"/>
        <device.driverstate.errorNoiseIntensityCoefficient value="0.2"/>
        <device.driverstate.speedDifferenceErrorCoefficient value="0.15"/>
        <device.driverstate.headwayErrorCoefficient value="0.75"/>
        <device.driverstate.speedDifferenceChangePerceptionThreshold value="0.1"/>
        <device.driverstate.headwayChangePerceptionThreshold value="0.1"/>
        <device.driverstate.minAwareness value="0.1"/>
        <device.driverstate.maximalReactionTime value="-1"/>
    </driver_state_device>

    <bluelight_device>
        <device.bluelight.probability value="-1"/>
        <device.bluelight.deterministic value="false"/>
    </bluelight_device>

    <fcd_device>
        <device.fcd.probability value="-1"/>
        <device.fcd.deterministic value="false"/>
        <device.fcd.period value="0"/>
        <person-device.fcd.probability value="-1"/>
        <person-device.fcd.deterministic value="false"/>
        <person-device.fcd.period value="0"/>
    </fcd_device>

    <traci_server>
        <remote-port value="36517"/>
        <num-clients value="1"/>
    </traci_server>

    <mesoscopic>
        <mesosim value="false"/>
        <meso-edgelength value="98"/>
        <meso-tauff value="1.13"/>
        <meso-taufj value="1.13"/>
        <meso-taujf value="1.73"/>
        <meso-taujj value="1.4"/>
        <meso-jam-threshold value="-1"/>
        <meso-multi-queue value="true"/>
        <meso-junction-control value="false"/>
        <meso-junction-control.limited value="false"/>
        <meso-tls-penalty value="0"/>
        <meso-minor-penalty value="0"/>
        <meso-overtaking value="false"/>
        <meso-recheck value="0"/>
    </mesoscopic>

    <random_number>
        <random value="false"/>
        <seed value="23423"/>
        <thread-rngs value="64"/>
    </random_number>

    <gui_only>
        <quit-on-end value="false"/>
        <game value="false"/>
        <game.mode value="tls"/>
        <start value="true"/>
        <demo value="false"/>
        <disable-textures value="false"/>
        <tracker-interval value="1"/>
        <gui-testing value="false"/>
        <gui-testing-debug value="false"/>
    </gui_only>

</configuration>
-->

<tripinfos xmlns:xsi="http://www.w3.org/2001/XMLSchema-instance" xsi:noNamespaceSchemaLocation="http://sumo.dlr.de/xsd/tripinfo_file.xsd">
</tripinfos>
